{
    "content_analysis": "Here's the analysis of the transcript, categorized under each Bloom's Taxonomy level:\n\n**Knowledge (Recall)**\n\n1. Hassium is an element with the atomic number 108.\n2. Hassium was first made in 1984 at the GSI institute in the German state of Hesse.\n3. The element is named after the Latin name for Hesse, Hassia.\n4. Hassium is in the same group of the periodic table as iron.\n5. Only 40 atoms of hassium have been made.\n6. Osmium has one of the highest melting points of any element.\n\n**Comprehension (Understanding)**\n\n1. The process of creating hassium involves accelerating atoms of iron to collide with a lead target.\n2. The resulting hassium atoms can be passed through an atmosphere of oxygen to form hassium tetroxide (HsO4).\n3. The volatility of hassium tetroxide can be compared to that of osmium tetroxide.\n4. The melting point of an element depends on the strength of the interaction between its atoms.\n\n**Application (Real-world scenarios)**\n\n1. Scientists can use the same method to create other elements by accelerating atoms of different elements to collide with various targets.\n2. Understanding the properties of hassium tetroxide can help researchers predict the behavior of other similar compounds.\n3. The study of hassium's melting point can inform the development of new materials with high melting points.\n\n**Analysis (Relationships, contrasts, cause-and-effect)**\n\n1. The relationship between hassium and iron is that they are in the same group of the periodic table.\n2. The contrast between hassium tetroxide and osmium tetroxide is that the former is less volatile than the latter.\n3. The cause-and-effect connection between the number of atoms and the measurement of melting point is that having more atoms is necessary to accurately determine the melting point.\n\n**Synthesis (Combining ideas)**\n\n1. Combining the knowledge of hassium's properties with that of other elements in the same group can lead to a deeper understanding of the periodic table.\n2. Integrating the study of hassium's melting point with research on other materials with high melting points can inform the development of new technologies.\n3. Considering the challenges of measuring the melting point of hassium can lead to new methods for calculating or estimating the melting points of other elements.\n\n**Evaluation (Judgment, critique, justification)**\n\n1. Evaluating the significance of discovering hassium's properties, despite the limited number of atoms available.\n2. Justifying the need for further research on hassium's melting point and its potential applications.\n3. Critiquing the methods used to measure the melting point of hassium and suggesting alternative approaches."
}